<?xml version="1.0"?>
<VTKFile type="PolyData" version="0.1" byte_order="LittleEndian">
  <PolyData>
    <Piece NumberOfPoints="2479" NumberOfPolys="4752">
      <Points>
        <DataArray type="Float32" Name="Points" NumberOfComponents="3" format="ascii">
-90.000000 -164.850746 191903.343618
-85.000000 -164.850746 192526.923297
-80.000000 -164.850746 192971.056934
-75.000000 -164.850746 193239.509250
-70.000000 -164.850746 193331.693951
-65.000000 -164.850746 193202.534454
-60.000000 -164.850746 141383.229552
-55.000000 -164.850746 3526.426902
-50.000000 -164.850746 3450.240423
-45.000000 -164.850746 3446.170303
-40.000000 -164.850746 3454.981555
-35.000000 -164.850746 3469.322617
-30.000000 -164.850746 3487.253016
-25.000000 -164.850746 3508.057266
-20.000000 -164.850746 3531.479644
-15.000000 -164.850746 3557.551218
-10.000000 -164.850746 3586.575148
-5.000000 -164.850746 3619.176443
0.000000 -164.850746 3656.394022
5.000000 -164.850746 3699.813366
10.000000 -164.850746 3751.746383
15.000000 -164.850746 3815.470752
20.000000 -164.850746 3895.547073
25.000000 -164.850746 3998.240472
30.000000 -164.850746 4132.086017
35.000000 -164.850746 4308.657445
40.000000 -164.850746 4543.631815
45.000000 -164.850746 4858.298132
50.000000 -164.850746 5281.753141
55.000000 -164.850746 5854.195016
60.000000 -164.850746 6632.029803
65.000000 -164.850746 7696.078043
70.000000 -164.850746 9165.294063
75.000000 -164.850746 11220.735865
80.000000 -164.850746 14149.624663
85.000000 -164.850746 18431.345353
90.000000 -164.850746 24918.058766
-90.000000 -159.850746 191266.077224
-85.000000 -159.850746 191991.994735
-80.000000 -159.850746 192538.128831
-75.000000 -159.850746 192909.065940
-70.000000 -159.850746 193109.241522
-65.000000 -159.850746 193139.705491
-60.000000 -159.850746 192935.923798
-55.000000 -159.850746 3503.090803
-50.000000 -159.850746 3260.951153
-45.000000 -159.850746 3243.738030
-40.000000 -159.850746 3238.754551
-35.000000 -159.850746 3237.904877
-30.000000 -159.850746 3239.552033
-25.000000 -159.850746 3243.100844
-20.000000 -159.850746 3248.300727
-15.000000 -159.850746 3255.118662
-10.000000 -159.850746 3263.738629
-5.000000 -159.850746 3274.608641
0.000000 -159.850746 3288.519253
5.000000 -159.850746 3306.713097
10.000000 -159.850746 3331.030836
15.000000 -159.850746 3364.102736
20.000000 -159.850746 3409.599125
25.000000 -159.850746 3472.558486
30.000000 -159.850746 3559.820147
35.000000 -159.850746 3680.601449
40.000000 -159.850746 3847.279931
45.000000 -159.850746 4076.475199
50.000000 -159.850746 4390.582172
55.000000 -159.850746 4820.005326
60.000000 -159.850746 5406.515594
65.000000 -159.850746 6208.463800
70.000000 -159.850746 7309.171682
75.000000 -159.850746 8830.975251
80.000000 -159.850746 10959.779230
85.000000 -159.850746 13990.211075
90.000000 -159.850746 18413.778016
-90.000000 -154.850746 190585.131090
-85.000000 -154.850746 191412.740495
-80.000000 -154.850746 192060.000758
-75.000000 -154.850746 192531.314411
-70.000000 -154.850746 192831.566950
-65.000000 -154.850746 192965.967966
-60.000000 -154.850746 192939.032877
-55.000000 -154.850746 192656.917697
-50.000000 -154.850746 3089.238494
-45.000000 -154.850746 3066.376126
-40.000000 -154.850746 3050.210670
-35.000000 -154.850746 3036.297937
-30.000000 -154.850746 3023.918627
-25.000000 -154.850746 3012.725190
-20.000000 -154.850746 3002.522163
-15.000000 -154.850746 2993.254274
-10.000000 -154.850746 2985.036500
-5.000000 -154.850746 2978.205236
0.000000 -154.850746 2973.389178
5.000000 -154.850746 2971.603121
10.000000 -154.850746 2974.370129
15.000000 -154.850746 2983.879569
20.000000 -154.850746 3003.191058
25.000000 -154.850746 3036.498067
30.000000 -154.850746 3089.470381
35.000000 -154.850746 3169.703154
40.000000 -154.850746 3287.313731
45.000000 -154.850746 3455.749208
50.000000 -154.850746 3692.903479
55.000000 -154.850746 4022.702412
60.000000 -154.850746 4477.418375
65.000000 -154.850746 5101.155401
70.000000 -154.850746 5955.272597
75.000000 -154.850746 7127.126968
80.000000 -154.850746 8744.721821
85.000000 -154.850746 11002.336990
90.000000 -154.850746 14207.679301
-90.000000 -149.850746 189860.979378
-85.000000 -149.850746 190789.683829
-80.000000 -149.850746 191537.589159
-75.000000 -149.850746 192108.665321
-70.000000 -149.850746 192507.376155
-65.000000 -149.850746 192738.585263
-60.000000 -149.850746 192807.271357
-55.000000 -149.850746 192715.035929
-50.000000 -149.850746 3030.220561
-45.000000 -149.850746 2917.985476
-40.000000 -149.850746 2888.454408
-35.000000 -149.850746 2861.934953
-30.000000 -149.850746 2836.841728
-25.000000 -149.850746 2812.692572
-20.000000 -149.850746 2789.231310
-15.000000 -149.850746 2766.349829
-10.000000 -149.850746 2744.101648
-5.000000 -149.850746 2722.742976
0.000000 -149.850746 2702.792738
5.000000 -149.850746 2685.112532
10.000000 -149.850746 2671.010351
15.000000 -149.850746 2662.373772
20.000000 -149.850746 2661.840251
25.000000 -149.850746 2673.014793
30.000000 -149.850746 2700.749128
35.000000 -149.850746 2751.502299
40.000000 -149.850746 2833.811701
45.000000 -149.850746 2958.918000
50.000000 -149.850746 3141.610700
55.000000 -149.850746 3401.399413
60.000000 -149.850746 3764.179817
65.000000 -149.850746 4264.672611
70.000000 -149.850746 4950.105356
75.000000 -149.850746 5885.954088
80.000000 -149.850746 7165.213565
85.000000 -149.850746 8923.945423
90.000000 -149.850746 11368.499164
-90.000000 -144.850746 189094.133645
-85.000000 -144.850746 190123.256400
-80.000000 -144.850746 190971.362305
-75.000000 -144.850746 191641.950686
-70.000000 -144.850746 192138.948583
-65.000000 -144.850746 192466.490400
-60.000000 -144.850746 192628.133215
-55.000000 -144.850746 192621.173705
-50.000000 -144.850746 192207.852290
-45.000000 -144.850746 2874.668053
-40.000000 -144.850746 2760.151259
-35.000000 -144.850746 2714.658142
-30.000000 -144.850746 2676.140390
-25.000000 -144.850746 2639.807006
-20.000000 -144.850746 2604.507722
-15.000000 -144.850746 2569.839535
-10.000000 -144.850746 2535.717326
-5.000000 -144.850746 2502.302722
0.000000 -144.850746 2470.023021
5.000000 -144.850746 2439.628415
10.000000 -144.850746 2412.276700
15.000000 -144.850746 2389.645574
20.000000 -144.850746 2374.076916
25.000000 -144.850746 2368.760300
30.000000 -144.850746 2377.966156
35.000000 -144.850746 2407.343195
40.000000 -144.850746 2464.301162
45.000000 -144.850746 2558.509824
50.000000 -144.850746 2702.560923
55.000000 -144.850746 2912.865124
60.000000 -144.850746 3210.897618
65.000000 -144.850746 3624.975268
70.000000 -144.850746 4192.866353
75.000000 -144.850746 4965.740862
80.000000 -144.850746 6014.343576
85.000000 -144.850746 7438.975439
90.000000 -144.850746 9386.249470
-90.000000 -139.850746 188285.183072
-85.000000 -139.850746 189413.918344
-80.000000 -139.850746 190361.683301
-75.000000 -139.850746 191131.524856
-70.000000 -139.850746 191726.871246
-65.000000 -139.850746 192151.253299
-60.000000 -139.850746 192407.432047
-55.000000 -139.850746 192492.934152
-50.000000 -139.850746 192348.486387
-45.000000 -139.850746 18810.037359
-40.000000 -139.850746 2712.779494
-35.000000 -139.850746 2600.573937
-30.000000 -139.850746 2541.792639
-25.000000 -139.850746 2492.097695
-20.000000 -139.850746 2445.400246
-15.000000 -139.850746 2400.083673
-10.000000 -139.850746 2355.640182
-5.000000 -139.850746 2312.038909
0.000000 -139.850746 2269.589030
5.000000 -139.850746 2228.938762
10.000000 -139.850746 2191.129850
15.000000 -139.850746 2157.687196
20.000000 -139.850746 2130.740256
25.000000 -139.850746 2113.179317
30.000000 -139.850746 2108.853612
35.000000 -139.850746 2122.821939
40.000000 -139.850746 2161.671237
45.000000 -139.850746 2233.925734
50.000000 -139.850746 2350.580221
55.000000 -139.850746 2525.808440
60.000000 -139.850746 2777.925545
65.000000 -139.850746 3130.729186
70.000000 -139.850746 3615.419759
75.000000 -139.850746 4273.429503
80.000000 -139.850746 5160.716194
85.000000 -139.850746 6354.485888
90.000000 -139.850746 7964.076829
-90.000000 -134.850746 187434.806012
-85.000000 -134.850746 188662.204839
-80.000000 -134.850746 189708.944263
-75.000000 -134.850746 190577.647727
-70.000000 -134.850746 191271.300752
-65.000000 -134.850746 191792.966138
-60.000000 -134.850746 192145.001587
-55.000000 -134.850746 192325.911261
-50.000000 -134.850746 192308.855788
-45.000000 -134.850746 191499.941972
-40.000000 -134.850746 3296.907058
-35.000000 -134.850746 2549.172082
-30.000000 -134.850746 2438.538205
-25.000000 -134.850746 2369.423666
-20.000000 -134.850746 2310.053828
-15.000000 -134.850746 2254.331758
-10.000000 -134.850746 2200.485010
-5.000000 -134.850746 2148.011005
0.000000 -134.850746 2096.998589
5.000000 -134.850746 2047.962312
10.000000 -134.850746 2001.832098
15.000000 -134.850746 1960.008809
20.000000 -134.850746 1924.460602
25.000000 -134.850746 1897.854723
30.000000 -134.850746 1883.727056
35.000000 -134.850746 1886.696401
40.000000 -134.850746 1912.734654
45.000000 -134.850746 1969.509573
50.000000 -134.850746 2066.824771
55.000000 -134.850746 2217.193913
60.000000 -134.850746 2436.605482
65.000000 -134.850746 2745.565559
70.000000 -134.850746 3170.556612
75.000000 -134.850746 3746.134206
80.000000 -134.850746 4518.026098
85.000000 -134.850746 5547.847371
90.000000 -134.850746 6920.495638
-90.000000 -129.850746 186543.768137
-85.000000 -129.850746 187868.739804
-80.000000 -129.850746 189013.615951
-75.000000 -129.850746 189980.623342
-70.000000 -129.850746 190772.350861
-65.000000 -129.850746 191391.483075
-60.000000 -129.850746 191840.147766
-55.000000 -129.850746 192117.724618
-50.000000 -129.850746 192209.960928
-45.000000 -129.850746 191980.716325
-40.000000 -129.850746 154931.309447
-35.000000 -129.850746 2727.487689
-30.000000 -129.850746 2385.042543
-25.000000 -129.850746 2275.176045
-20.000000 -129.850746 2198.129540
-15.000000 -129.850746 2130.800104
-10.000000 -129.850746 2067.675750
-5.000000 -129.850746 2007.069708
0.000000 -129.850746 1948.598029
[...]
      <PointData Scalars="MorphedValue">
        <DataArray type="Float32" Name="MorphedValue" format="ascii">
3838.066872 3850.538466 3859.421139 3864.790185 3866.633879 3864.050689 2827.664591 70.528538 69.004808 68.923406 69.099631 69.386452 69.745060 70.161145 70.629593 71.151024 71.731503 72.383529 73.127880 73.996267 75.034928 76.309415 77.910941 79.964809 82.641720 86.173149 90.872636 97.165963 105.635063 117.083900 132.640596 153.921561 183.305881 224.414717 282.992493 368.626907 498.361175
3825.321544 3839.839895 3850.762577 3858.181319 3862.184830 3862.794110 3858.718476 70.061816 65.219023 64.874761 64.775091 64.758098 64.791041 64.862017 64.966015 65.102373 65.274773 65.492173 65.770385 66.134262 66.620617 67.282055 68.191983 69.451170 71.196403 73.612029 76.945599 81.529504 87.811643 96.400107 108.130312 124.169276 146.183434 176.619505 219.195585 279.804221 368.275560
3811.702622 3828.254810 3841.200015 3850.626288 3856.631339 3859.319359 3858.780658 3853.138354 61.784770 61.327523 61.004213 60.725959 60.478373 60.254504 60.050443 59.865085 59.700730 59.564105 59.467784 59.432062 59.487403 59.677591 60.063821 60.729961 61.789408 63.394063 65.746275 69.114984 73.858070 80.454048 89.548367 102.023108 119.105452 142.542539 174.894436 220.046740 284.153586
3797.219588 3815.793677 3830.751783 3842.173306 3850.147523 3854.771705 3856.145427 3854.300719 60.604411 58.359710 57.769088 57.238699 56.736835 56.253851 55.784626 55.326997 54.882033 54.454860 54.055855 53.702251 53.420207 53.247475 53.236805 53.460296 54.014983 55.030046 56.676234 59.178360 62.832214 68.027988 75.283596 85.293452 99.002107 117.719082 143.304271 178.478908 227.369983
3781.882673 3802.465128 3819.427246 3832.839014 3842.778972 3849.329808 3852.562664 3852.423474 3844.157046 57.493361 55.203025 54.293163 53.522808 52.796140 52.090154 51.396791 50.714347 50.046054 49.400460 48.792568 48.245534 47.792911 47.481538 47.375206 47.559323 48.146864 49.286023 51.170196 54.051218 58.257302 64.217952 72.499505 83.857327 99.314817 120.286872 148.779509 187.724989
3765.703661 3788.278367 3807.233666 3822.630497 3834.537425 3843.025066 3848.148641 3849.858683 3846.969728 376.200747 54.255590 52.011479 50.835853 49.841954 48.908005 48.001673 47.112804 46.240778 45.391781 44.578775 43.822597 43.153744 42.614805 42.263586 42.177072 42.456439 43.233425 44.678515 47.011604 50.516169 55.558511 62.614584 72.308395 85.468590 103.214324 127.089718 159.281537
3748.696120 3773.244097 3794.178885 3811.552955 3825.426015 3835.859323 3842.900032 3846.518225 3846.177116 3829.998839 65.938141 50.983442 48.770764 47.388473 46.201077 45.086635 44.009700 42.960220 41.939972 40.959246 40.036642 39.200176 38.489212 37.957094 37.674541 37.733928 38.254693 39.390191 41.336495 44.343878 48.732110 54.911311 63.411132 74.922684 90.360522 110.956947 138.409913
3730.875363 3757.374796 3780.272319 3799.612467 3815.447017 3827.829661 3836.802955 3842.354492 3844.199219 3839.614327 3098.626189 54.549754 47.700851 45.503521 43.962591 42.616002 41.353515 40.141394 38.971961 37.850888 36.793891 35.826540 34.985475 34.320519 33.897546 33.802167 34.144374 35.064371 36.739985 39.396169 43.317448 48.864548 56.497169 66.805982 80.558782 98.768927 122.799687
3712.258291 3740.684694 3765.525228 3786.816931 3804.604314 3818.934568 3829.846944 3837.341872 3841.258118 3840.494573 3818.449036 109.034568 49.107409 44.427437 42.238085 40.579053 39.109681 37.735973 36.429212 35.186098 34.017713 32.946571 32.006615 31.244609 30.722468 30.520401 30.740909 31.513820 33.002603 35.412382 39.000255 44.088840 51.084458 60.502149 73.000968 89.435089 110.929781
3692.863187 3723.189617 3749.950679 3773.176259 3792.904066 3809.175390 3822.026499 3831.466439 3837.402404 3839.284249 3832.954789 3525.172036 61.563209 44.932654 41.183872 39.004133 37.264188 35.710472 34.266436 32.910595 31.645744 30.489829 29.473560 28.640680 28.049606 27.776002 27.916217 28.591635 29.954118 32.192853 35.543042 40.297131 46.819608 55.566975 67.115340 82.199516 101.769818
3672.709499 3704.906780 3733.563375 3758.702286 3780.354738 3798.556446 3813.340614 3824.721610 3832.647033 3836.811391 3835.546705 3808.907256 237.911457 50.005476 41.240316 37.993068 35.832585 34.048442 32.451354 30.982048 29.627799 28.398980 27.321794 26.436527 25.798169 25.478318 25.568042 26.181626 27.461287 29.583077 32.764289 37.272904 43.439825 51.675104 62.489923 76.527122 94.604617
3651.817623 3685.854574 3716.379442 3743.408560 3766.966890 3787.084745 3803.792031 3817.105969 3826.998905 3833.291228 3835.159794 3827.152301 3603.844266 77.983553 43.750927 37.810858 34.880624 32.756132 30.965905 29.369559 27.924470 26.627802 25.498817 24.573303 23.902492 23.554047 23.614270 24.191261 25.418996 27.462427 30.523868 34.851020 40.747229 48.584861 58.823095 72.032184 88.927269
3630.208712 3666.052350 3698.416200 3727.310098 3752.752906 3774.769617 3793.386563 3808.621990 3820.463599 3828.802718 3833.184021 3831.387097 3800.744393 531.802301 53.951012 39.151573 34.573136 31.875050 29.809746 28.054194 26.506419 25.139785 23.962244 23.003143 22.309132 21.943722 21.988655 22.546429 23.743760 25.736003 28.712667 32.904303 38.591196 46.114522 55.890958 68.432238 84.371932
3607.904488 3645.520226 3679.691952 3710.423153 3737.726713 3761.622336 3782.132526 3799.275180 3813.047424 3823.382943 3830.011832 3831.836195 3822.199559 3627.008486 105.932868 44.099635 35.300365 31.509610 29.007934 27.031072 25.354459 23.907311 22.678439 21.687375 20.974662 20.599037 20.637587 21.187500 22.368907 24.328657 27.245093 31.333990 36.855988 44.125989 53.525298 65.517592 80.670413
3584.927088 3624.278911 3660.225787 3692.764987 3721.903511 3747.655794 3770.040272 3789.073472 3804.758025 3817.053802 3825.793708 3830.369411 3828.017300 3793.519290 995.112926 60.884367 38.052961 31.891571 28.626999 26.314054 24.460722 22.911442 21.621632 20.595198 19.863987 19.480792 19.517609 20.066350 21.240959 23.180567 26.053583 30.062837 35.451953 42.513353 51.598428 63.130730 77.623430
3561.298920 3602.349543 3640.037400 3674.353668 3705.299545 3732.884199 3757.121807 3778.026745 3795.604474 3809.831296 3820.600904 3827.550642 3829.305362 3818.033723 3631.591861 145.437802 45.787706 33.545718 28.809573 25.945260 23.831476 22.142481 20.773524 19.702781 18.949088 18.557323 18.593526 19.144073 20.316888 22.243908 25.084537 29.030067 34.309174 41.194762 50.012561 61.152126 75.081171
3537.042535 3579.753554 3619.146941 3655.207894 3687.931889 3717.322830 3743.390475 3766.146454 3785.597178 3801.729194 3814.473703 3823.603525 3828.354035 3825.414563 3786.896831 1461.284106 70.276697 37.781151 29.854222 26.014410 23.492831 21.601623 20.123456 18.992761 18.208129 17.803319 17.836944 18.389240 19.562024 21.480342 24.295264 28.187638 33.372820 40.106545 48.692247 59.490297 72.929882
3512.180523 3556.512545 3597.574871 3635.346835 3669.818267 3700.987815 3728.860691 3753.445322 3774.747719 3792.760584 3807.438859 3818.635159 3825.891615 3827.549440 3814.572021 3626.702228 193.074690 48.482966 32.419513 26.699813 23.501835 21.304370 19.669323 18.454159 17.624891 17.198953 17.225161 17.776545 18.948443 20.859089 23.651673 27.497436 32.599699 39.198914 47.578911 58.074711 71.082448
3486.735412 3532.648180 3575.341847 3614.789999 3650.976894 3683.895945 3713.547720 3739.937093 3763.068683 3782.938552 3799.516804 3812.705272 3822.215049 3827.120505 3823.544115 3780.586495 1784.954378 81.115842 38.126377 28.362034 23.968553 21.287025 19.419589 18.082822 17.188542 16.729295 16.740340 17.285777 18.453726 20.355453 23.126514 26.929152 31.955679 38.432777 46.626851 56.850666 69.471682
3471.197781 3518.039354 3561.693404 3602.130122 3639.330464 3673.284712 3703.990614 3731.450776 3755.668616 3776.641230 3794.345010 3808.702188 3819.489341 3826.029628 3825.790692 3803.400625 3351.004413 140.891332 44.738356 30.120909 24.548803 21.437883 19.376600 17.941515 16.994789 16.507666 16.504584 17.043065 18.206352 20.101333 22.859013 26.636452 31.619746 38.027920 46.117799 56.190033 68.596626
3444.866202 3493.222581 3538.446008 3580.501114 3619.363417 3655.018012 3687.457900 3716.681734 3742.690454 3765.481652 3785.038886 3801.308456 3814.140967 3823.115688 3826.867255 3819.276914 3741.009143 801.504813 69.879729 35.371369 26.260285 22.034992 19.509984 17.849918 16.784953 16.233883 16.196333 16.715879 17.866267 19.746518 22.479942 26.215177 31.128473 37.426927 45.352620 55.187752 67.261013
3418.009280 3467.838454 3514.591563 3558.227805 3598.717351 3636.040146 3670.184418 3701.144692 3728.918956 3753.504134 3774.887947 3793.032307 3807.834476 3819.020802 3825.790732 3825.208993 3799.866262 3337.164472 164.505673 46.793030 29.493753 23.230460 19.956965 17.958515 16.721553 16.077428 15.987848 16.476891 17.606301 19.466116 22.171576 25.862994 30.707249 36.900361 44.670957 54.284627 66.049331
3390.648742 3441.908191 3490.150659 3535.330037 3577.411245 3616.369137 3652.187148 3684.855550 3714.369026 3740.722965 3763.907138 3783.893500 3800.609489 3813.870624 3823.178098 3826.945914 3818.167777 3730.865926 899.009884 76.227149 35.708739 25.369180 20.828146 18.307631 16.818497 16.040548 15.875518 16.319191 17.417447 19.249589 21.922066 25.566736 30.341396 36.431646 44.053704 53.458078 64.934132
3362.805972 3415.452748 3465.143704 3511.827560 3555.464085 3596.023104 3633.483268 3667.830504 3699.055920 3727.152725 3752.111217 3773.909612 3792.495137 3807.739560 3819.317346 3826.297772 3825.308640 3796.570701 3300.797385 183.196019 48.751556 29.148559 22.320399 18.966369 17.101838 16.131824 15.859784 16.238970 17.293423 19.089026 21.722253 25.316108 30.019394 36.007764 43.485870 52.690393 63.893882
3323.055853 3377.572078 3429.221378 3477.945466 3523.697091 3566.439158 3606.143663 3642.790355 3676.365008 3706.856991 3734.255533 3758.543354 3779.684486 3797.598023 3812.093510 3822.683787 3827.908743 3821.891258 3760.503844 1965.579601 108.958986 40.550747 26.209887 20.647832 17.900709 16.509193 16.010863 16.256306 17.222095 18.948021 21.513306 25.027197 29.625626 35.470759 42.752117 51.688714 62.531997
3294.140623 3349.939792 3402.937717 3453.071278 3500.288353 3544.547006 3585.814526 3624.066220 3659.283887 3691.453740 3720.563321 3746.596479 3769.524226 3789.286112 3805.747275 3818.584112 3826.917456 3827.769970 3805.803384 3538.052694 327.244520 60.255965 31.455117 22.709519 18.869082 17.000255 16.259312 16.366337 17.243341 18.903004 21.408475 24.857519 29.376283 35.117346 42.259938 51.011398 61.609513
3264.812842 3321.851077 3376.155443 3427.658142 3476.302302 3522.041245 3564.837604 3604.662244 3641.492899 3675.312375 3706.105973 3733.857453 3758.542035 3780.112843 3798.471469 3813.395100 3824.324567 3829.595047 3822.494076 3752.157373 1856.302164 113.112706 41.169665 26.010400 20.330425 17.736420 16.649540 16.567469 17.327476 18.903518 21.337722 24.714167 29.148290 34.782860 41.787037 50.357076 60.718044
3235.092020 3293.325303 3348.893680 3401.724830 3451.757264 3498.939664 3543.230077 3584.594939 3623.007862 3658.448063 3690.898176 3720.340971 3746.753884 3770.098939 3790.302010 3807.204693 3820.435467 3828.994069 3829.490971 3804.294616 3492.007821 325.024921 61.526762 31.532948 22.543946 18.807036 17.217179 16.874730 17.480479 18.951138 21.300283 24.595000 28.938571 34.463434 41.328705 49.719971 59.850345
3204.997198 3264.381418 3321.171180 3375.289800 3426.671308 3475.259857 3521.008984 3563.880732 3603.844561 3640.875959 3674.954582 3706.061524 3734.174989 3759.262634 3781.266609 3800.070776 3815.419060 3826.676455 3831.954852 3823.579926 3742.086380 1690.942286 114.029804 41.499950 25.987204 20.359222 18.017683 17.311422 17.712429 19.049849 21.297061 24.499220 28.745268 34.156412 40.881521 49.095754 59.000859
3174.546932 3235.037938 3293.006314 3348.371176 3401.062221 3451.019186 3498.191190 3542.535928 3584.018699 3622.611173 3658.289782 3691.033437 3720.820030 3747.620522 3771.387911 3792.034297 3809.377285 3822.995500 3831.758735 3831.814737 3802.759550 3429.137465 310.087017 61.788696 31.611080 22.645139 19.138445 17.912911 18.038838 19.206511 21.330754 24.427344 28.567629 33.860182 40.443136 48.481267 58.165390
3143.759290 3205.312931 3264.417051 3320.986734 3374.947488 3426.234764 3474.793356 3520.576674 3563.545867 3603.668729 3640.918288 3675.270881 3706.703285 3735.188073 3760.685312 3783.126141 3802.376502 3818.146109 3829.719814 3834.964138 3825.083997 3729.470022 1484.746388 112.000982 41.520160 26.122003 20.721058 18.733005 18.482782 19.431628 21.406115 24.381241 28.405946 33.574052 40.012104 47.874321 57.340845
3112.651852 3175.224020 3235.420955 3293.153883 3348.344277 3400.923430 3450.831915 3498.018934 3542.441513 3584.063535 3622.854502 3658.787878 3691.838716 3721.979951 3749.176038 3773.370939 3794.462925 3812.245193 3826.244439 3835.190371 3834.706772 3800.993418 3342.128810 286.361137 61.114450 31.683734 23.004583 19.855064 19.078383 19.740576 21.530389 24.364272 28.261552 33.298175 39.587763 47.273535 56.525029
3081.241707 3144.788373 3206.035178 3264.889663 3321.269423 3375.101731 3426.323055 3474.878464 3520.720912 3563.810364 3604.112701 3641.598295 3676.240016 3708.010223 3736.875818 3762.789280 3785.670748 3805.368104 3821.555916 3833.434163 3838.598200 3826.933881 3713.158955 1256.848928 107.605027 41.264069 26.415622 21.412149 19.876592 20.155543 21.714029 24.381540 28.136880 33.033517 39.170148 46.678205 55.716487
3049.545457 3114.022707 3176.276454 3236.210732 3293.739422 3348.785917 3401.282698 3451.170798 3498.399154 3542.923823 3584.707014 3623.715842 3659.920639 3693.292489 3723.799310 3751.399047 3776.026666 3797.566614 3815.787325 3830.161429 3839.267167 3838.130932 3798.739701 3219.993969 257.765795 59.672457 31.772881 23.625662 20.955139 20.708649 21.971794 24.440294 28.035596 32.781869 38.759944 46.088225 54.914383
3017.579226 3082.943288 3146.161100 3207.133370 3265.770423 3321.991925 3375.726495 3426.911229 3475.491119 3521.418345 3564.651412 3605.154061 3642.893824 3677.839971 3709.960372 3739.216241 3765.552510 3788.878389 3809.023646 3825.626831 3837.798021 3842.831705 3829.047758 3691.493259 1028.718952 101.547301 40.806418 26.884468 22.436384 21.447090 22.324482 24.550566 27.962830 32.545913 38.358470 45.504022 54.118404
2985.358657 3051.565938 3115.705021 3177.673469 3237.378227 3294.735378 3349.669813 3402.114802 3452.011471 3499.308167 3543.959688 3585.926321 3625.172597 3661.665568 3695.372253 3726.255521 3754.266843 3779.332283 3801.322546 3819.981067 3834.724305 3843.966551 3842.049456 3795.669124 3046.905957 227.566362 57.685336 31.921014 24.521051 22.441867 22.801674 24.726146 27.925542 32.329343 37.967697 44.926525 53.328698
2952.898931 3019.906037 3084.923706 3147.846544 3208.578281 3267.031578 3323.127732 3376.796305 3427.974645 3476.607326 3522.645452 3566.045809 3606.769783 3644.781896 3680.047710 3712.530551 3742.185963 3768.951423 3792.725359 3813.319485 3830.335621 3842.788761 3847.638838 3831.332177 3661.999544 819.227419 94.530290 40.247069 27.556182 23.803278 23.446213 24.986091 27.933079 32.137079 37.590315 44.357157 52.545826
2920.214768 2987.978531 3053.832241 3117.667728 3179.385685 3238.895505 3296.115040 3350.970260 3403.394840 3453.329646 3500.722122 3545.525530 3587.698008 3627.201318 3663.999100 3698.054235 3729.324542 3757.755092 3783.263204 3805.706046 3824.801984 3839.909379 3849.265190 3846.423137 3791.348563 2802.598157 198.132514 55.392895 32.183383 25.709768 24.321727 25.357099 27.998016 31.975577 37.229844 43.797861 51.770742
2887.320441 2955.797944 3022.445309 3087.151780 3149.815188 3210.341822 3268.646230 3324.650926 3378.286013 3429.488733 3478.202914 3524.378296 3567.969702 3608.935958 3647.238433 3682.838882 3715.696062 3745.759902 3772.960574 3797.185963 3818.229962 3835.657195 3848.382481 3852.993563 3833.679341 3620.872652 640.132328 87.171354 39.696390 28.465130 25.525806 25.877333 28.137451 31.853313 36.890812 43.251157 51.004789
2854.229788 2923.378382 2990.777201 3056.313092 3119.881196 3181.384869 3240.735506 3297.852292 3352.661879 3405.097973 3455.100844 3502.616729 3547.597098 3589.997720 3629.777420 3666.896314 3701.313096 3732.980561 3761.837505 3787.792747 3810.690253 3830.223511 3845.691206 3855.139048 3851.211734 3785.193644 2468.730840 170.966169 53.024464 32.620798 27.214240 26.602788 28.375018 31.781496 36.579027 42.720236 50.249724
2820.956221 2890.733548 2958.841826 3025.165691 3089.597779 3152.038675 3212.396777 3270.588083 3326.535911 3380.170528 3431.428721 3480.253257 3526.592239 3570.398293 3611.627506 3650.237952 3686.187513 3719.430377 3749.910951 3777.552318 3802.232187 3823.727069 3841.564320 3854.553889 3858.870021 3835.963717 3562.069772 495.112175 79.964305 39.263558 29.648266 27.618317 28.744100 31.775158 36.301978 42.209114 49.507765
2787.512741 2857.876750 2926.652716 2993.723254 3058.978673 3122.316958 3183.643668 3242.871759 3299.921336 3354.719339 3407.199148 3457.300112 3504.966976 3550.149169 3592.799890 3632.874876 3670.330620 3705.121606 3737.195668 3766.485510 3792.891787 3816.245784 3836.216635 3852.042356 3861.563493 3856.374696 3776.394260 2047.053684 146.865997 50.781523 33.293667 29.057620 29.293128 31.854828 36.069435 41.722857 48.781670
2753.911951 2824.820916 2894.223042 2961.999112 3028.037290 3092.233135 3154.489524 3214.716517 3272.831143 3328.757124 3382.424524 3433.769338 3482.732975 3529.261640 3573.305545 3614.817863 3653.753261 3690.065693 3723.704809 3754.609639 3782.696473 3807.833345 3829.780112 3848.027315 3861.276177 3865.243123 3838.037750 3475.720680 381.982626 73.272940 39.048303 31.141635 30.094641 32.049191 35.894341 41.267909 48.074864
2720.166069 2791.578603 2861.565620 2930.006261 2996.786728 3061.800323 3124.947410 3186.135301 3245.278085 3302.296383 3357.117047 3409.672785 3459.901715 3507.746815 3553.155239 3596.077430 3636.465898 3674.273438 3709.450323 3741.939528 3771.667910 3798.528415 3822.340382 3842.749553 3858.933160 3868.513447 3861.872355 3763.793683 1581.299679 126.128632 48.829255 34.257532 31.261516 32.399417 35.794191 40.852584 47.391618
2686.286945 2758.162013 2828.692928 2897.757376 2965.239778 3031.031357 3095.030125 3157.140804 3217.274682 3275.349405 3331.288715 3385.022121 3436.484501 3485.615621 3532.359542 3576.663854 3618.478662 3657.755126 3694.443240 3728.488184 3759.823800 3788.359972 3813.955735 3836.355350 3855.013732 3868.520897 3872.089330 3839.726357 3345.450969 295.754981 67.343489 39.135905 32.977665 32.966491 35.793184 40.487789 46.737319
2652.286071 2724.583004 2795.617113 2865.264816 2933.408935 2999.938790 3064.750209 3127.745478 3188.833230 3247.928266 3304.951333 3359.828829 3412.492460 3462.878814 3510.928841 3556.587201 3599.801405 3640.520614 3678.693869 3714.267259 3747.179041 3777.350543 3804.667584 3828.938552 3849.787314 3866.331422 3875.963569 3867.667725 3745.685474 1146.898371 108.729842 47.294625 35.560062 33.844185 35.925707 40.188129 46.118856
2618.174596 2690.853106 2762.350008 2832.540640 2901.306410 2968.534908 3034.119947 3097.961539 3159.965807 3220.044845 3278.116518 3334.104219 3387.936556 3439.546984 3488.873352 3535.857340 3580.443728 3622.579407 3662.211946 3699.287378 3733.746503 3765.518229 3794.506517 3820.562269 3843.415625 3862.487988 3876.257782 3879.387667 3840.819757 3144.634999 230.890633 62.325527 39.594822 35.183225 36.242167 39.973625 45.545198
2583.963345 2656.983532 2728.903143 2799.596620 2868.944139 2936.831738 3003.151386 3067.800978 3130.684283 3191.710821 3250.795708 3307.859431 3362.827590 3415.630566 3466.203132 3514.483963 3560.415016 3603.940706 3645.006741 3683.558369 3719.537548 3752.878009 3783.495938 3811.270755 3836.001190 3857.291425 3874.202075 3883.888427 3873.729179 3719.459498 800.904223 94.463461 46.268602 37.239305 36.819190 39.872466 45.028263